
    -----------------------------------------------------------------------
          Psi4: An Open-Source Ab Initio Electronic Structure Package
                               Psi4 1.5 release

                         Git: Rev {HEAD} e9f4d6d 


    D. G. A. Smith, L. A. Burns, A. C. Simmonett, R. M. Parrish,
    M. C. Schieber, R. Galvelis, P. Kraus, H. Kruse, R. Di Remigio,
    A. Alenaizan, A. M. James, S. Lehtola, J. P. Misiewicz, M. Scheurer,
    R. A. Shaw, J. B. Schriber, Y. Xie, Z. L. Glick, D. A. Sirianni,
    J. S. O'Brien, J. M. Waldrop, A. Kumar, E. G. Hohenstein,
    B. P. Pritchard, B. R. Brooks, H. F. Schaefer III, A. Yu. Sokolov,
    K. Patkowski, A. E. DePrince III, U. Bozkaya, R. A. King,
    F. A. Evangelista, J. M. Turney, T. D. Crawford, C. D. Sherrill,
    J. Chem. Phys. 152(18) 184108 (2020). https://doi.org/10.1063/5.0006002

                            Additional Code Authors
    E. T. Seidl, C. L. Janssen, E. F. Valeev, M. L. Leininger,
    J. F. Gonthier, R. M. Richard, H. R. McAlexander, M. Saitow, X. Wang,
    P. Verma, M. H. Lechner, and A. Jiang

             Previous Authors, Complete List of Code Contributors,
                       and Citations for Specific Modules
    https://github.com/psi4/psi4/blob/master/codemeta.json
    https://github.com/psi4/psi4/graphs/contributors
    http://psicode.org/psi4manual/master/introduction.html#citing-psifour

    -----------------------------------------------------------------------


    Psi4 started on: Monday, 18 April 2022 11:26AM

    Process ID: 12791
    Host:       login
    PSIDATADIR: /data/home/liuhanyu/anaconda3/envs/psi4/share/psi4
    Memory:     500.0 MiB
    Threads:    1
    
  ==> Input File <==

--------------------------------------------------------------------------
# filename: input.dat
# Optimization followed by frequencies H2O HF/cc-pVDZ

molecule h2o {
    O
    H 1 0.96
    H 1 0.96 2 104.5
}

set basis cc-pVDZ
optimize('scf')
scf_e, scf_wfn = frequencies('scf', return_wfn=True, dertype=1)--------------------------------------------------------------------------

Scratch directory: /tmp/
gradient() will perform analytic gradient computation.

*** tstart() called on login
*** at Mon Apr 18 11:26:41 2022

   => Loading Basis Set <=

    Name: CC-PVDZ
    Role: ORBITAL
    Keyword: BASIS
    atoms 1   entry O          line   198 file /data/home/liuhanyu/anaconda3/envs/psi4/share/psi4/basis/cc-pvdz.gbs 
    atoms 2-3 entry H          line    22 file /data/home/liuhanyu/anaconda3/envs/psi4/share/psi4/basis/cc-pvdz.gbs 


         ---------------------------------------------------------
                                   SCF
               by Justin Turney, Rob Parrish, Andy Simmonett
                          and Daniel G. A. Smith
                              RHF Reference
                        1 Threads,    500 MiB Core
         ---------------------------------------------------------

  ==> Geometry <==

    Molecular point group: c2v
    Full point group: C2v

    Geometry (in Angstrom), charge = 0, multiplicity = 1:

       Center              X                  Y                   Z               Mass       
    ------------   -----------------  -----------------  -----------------  -----------------
         O            0.000000000000     0.000000000000    -0.065775570547    15.994914619570
         H            0.000000000000    -0.759061990794     0.521953018286     1.007825032230
         H            0.000000000000     0.759061990794     0.521953018286     1.007825032230

  Running in c2v symmetry.

  Rotational constants: A =     27.26297  B =     14.51533  C =      9.47217 [cm^-1]
  Rotational constants: A = 817323.21126  B = 435158.60141  C = 283968.37536 [MHz]
  Nuclear repulsion =    9.168193296424349

  Charge       = 0
  Multiplicity = 1
  Electrons    = 10
  Nalpha       = 5
  Nbeta        = 5

  ==> Algorithm <==

  SCF Algorithm Type is DF.
  DIIS enabled.
  MOM disabled.
  Fractional occupation disabled.
  Guess Type is SAD.
  Energy threshold   = 1.00e-08
  Density threshold  = 1.00e-08
  Integral threshold = 1.00e-12

  ==> Primary Basis <==

  Basis Set: CC-PVDZ
    Blend: CC-PVDZ
    Number of shells: 12
    Number of basis functions: 24
    Number of Cartesian functions: 25
    Spherical Harmonics?: true
    Max angular momentum: 2

   => Loading Basis Set <=

    Name: (CC-PVDZ AUX)
    Role: JKFIT
    Keyword: DF_BASIS_SCF
    atoms 1   entry O          line   221 file /data/home/liuhanyu/anaconda3/envs/psi4/share/psi4/basis/cc-pvdz-jkfit.gbs 
    atoms 2-3 entry H          line    51 file /data/home/liuhanyu/anaconda3/envs/psi4/share/psi4/basis/cc-pvdz-jkfit.gbs 

  ==> Integral Setup <==

  DFHelper Memory: AOs need 0.001 GiB; user supplied 0.366 GiB. Using in-core AOs.

  ==> MemDFJK: Density-Fitted J/K Matrices <==

    J tasked:                   Yes
    K tasked:                   Yes
    wK tasked:                   No
    OpenMP threads:               1
    Memory [MiB]:               375
    Algorithm:                 Core
    Schwarz Cutoff:           1E-12
    Mask sparsity (%):       0.0000
    Fitting Condition:        1E-10

   => Auxiliary Basis Set <=

  Basis Set: (CC-PVDZ AUX)
    Blend: CC-PVDZ-JKFIT
    Number of shells: 42
    Number of basis functions: 116
    Number of Cartesian functions: 131
    Spherical Harmonics?: true
    Max angular momentum: 3

  Minimum eigenvalue in the overlap matrix is 3.2707806872E-02.
  Reciprocal condition number of the overlap matrix is 1.0389988226E-02.
    Using symmetric orthogonalization.

  ==> Pre-Iterations <==

  SCF Guess: Superposition of Atomic Densities via on-the-fly atomic UHF (no occupation information).

   -------------------------
    Irrep   Nso     Nmo    
   -------------------------
     A1        11      11 
     A2         2       2 
     B1         4       4 
     B2         7       7 
   -------------------------
    Total      24      24
   -------------------------

  ==> Iterations <==

                           Total Energy        Delta E     RMS |[F,P]|

   @DF-RHF iter SAD:   -75.50772041125765   -7.55077e+01   0.00000e+00 
   @DF-RHF iter   1:   -75.95376270516577   -4.46042e-01   3.03066e-02 DIIS
   @DF-RHF iter   2:   -76.00706363301774   -5.33009e-02   1.73566e-02 DIIS
   @DF-RHF iter   3:   -76.02622368351994   -1.91601e-02   1.58492e-03 DIIS
   @DF-RHF iter   4:   -76.02661218857607   -3.88505e-04   3.65252e-04 DIIS
   @DF-RHF iter   5:   -76.02663177688967   -1.95883e-05   6.70709e-05 DIIS
   @DF-RHF iter   6:   -76.02663270835728   -9.31468e-07   1.06747e-05 DIIS
   @DF-RHF iter   7:   -76.02663273455096   -2.61937e-08   1.50583e-06 DIIS
   @DF-RHF iter   8:   -76.02663273509026   -5.39302e-10   3.50189e-07 DIIS
   @DF-RHF iter   9:   -76.02663273512391   -3.36513e-11   5.93061e-08 DIIS
   @DF-RHF iter  10:   -76.02663273512472   -8.10019e-13   4.89733e-09 DIIS
  Energy and wave function converged.


  ==> Post-Iterations <==

    Orbital Energies [Eh]
    ---------------------

    Doubly Occupied:                                                      

       1A1   -20.550925     2A1    -1.335311     1B2    -0.697803  
       3A1    -0.566087     1B1    -0.492948  

    Virtual:                                                              

       4A1     0.185107     2B2     0.255846     3B2     0.787336  
       5A1     0.851826     6A1     1.163856     2B1     1.200424  
       4B2     1.253573     7A1     1.445291     1A2     1.476011  
       3B1     1.674661     8A1     1.868110     5B2     1.932579  
       6B2     2.446529     9A1     2.483817     4B1     3.283958  
       2A2     3.336669    10A1     3.507634    11A1     3.863421  
       7B2     4.144760  

    Final Occupation by Irrep:
             A1    A2    B1    B2 
    DOCC [     3,    0,    1,    1 ]

  @DF-RHF Final Energy:   -76.02663273512472

   => Energetics <=

    Nuclear Repulsion Energy =              9.1681932964243487
    One-Electron Energy =                -123.1035071874264872
    Two-Electron Energy =                  37.9086811558774102
    Total Energy =                        -76.0266327351247355

Computation Completed


Properties will be evaluated at   0.000000,   0.000000,   0.000000 [a0]

Properties computed using the SCF density matrix

  Nuclear Dipole Moment: [e a0]
     X:     0.0000      Y:     0.0000      Z:     0.9783

  Electronic Dipole Moment: [e a0]
     X:     0.0000      Y:     0.0000      Z:    -0.1680

  Dipole Moment: [e a0]
     X:     0.0000      Y:     0.0000      Z:     0.8103     Total:     0.8103

  Dipole Moment: [D]
     X:     0.0000      Y:     0.0000      Z:     2.0595     Total:     2.0595


*** tstop() called on login at Mon Apr 18 11:26:41 2022
Module time:
	user time   =       0.35 seconds =       0.01 minutes
	system time =       0.02 seconds =       0.00 minutes
	total time  =          0 seconds =       0.00 minutes
Total time:
	user time   =       0.35 seconds =       0.01 minutes
	system time =       0.02 seconds =       0.00 minutes
	total time  =          0 seconds =       0.00 minutes

*** tstart() called on login
*** at Mon Apr 18 11:26:41 2022


         ------------------------------------------------------------
                                   SCF GRAD                          
                          Rob Parrish, Justin Turney,                
                       Andy Simmonett, and Alex Sokolov              
         ------------------------------------------------------------

  ==> Geometry <==

    Molecular point group: c2v
    Full point group: C2v

    Geometry (in Angstrom), charge = 0, multiplicity = 1:

       Center              X                  Y                   Z               Mass       
    ------------   -----------------  -----------------  -----------------  -----------------
         O            0.000000000000     0.000000000000    -0.065775570547    15.994914619570
         H            0.000000000000    -0.759061990794     0.521953018286     1.007825032230
         H            0.000000000000     0.759061990794     0.521953018286     1.007825032230

  Nuclear repulsion =    9.168193296424349

  ==> Basis Set <==

  Basis Set: CC-PVDZ
    Blend: CC-PVDZ
    Number of shells: 12
    Number of basis functions: 24
    Number of Cartesian functions: 25
    Spherical Harmonics?: true
    Max angular momentum: 2

  ==> DFJKGrad: Density-Fitted SCF Gradients <==

    Gradient:                    1
    J tasked:                  Yes
    K tasked:                  Yes
    wK tasked:                  No
    OpenMP threads:              1
    Integrals threads:           1
    Memory [MiB]:              375
    Schwarz Cutoff:          1E-12
    Fitting Condition:       1E-10

   => Auxiliary Basis Set <=

  Basis Set: (CC-PVDZ AUX)
    Blend: CC-PVDZ-JKFIT
    Number of shells: 42
    Number of basis functions: 116
    Number of Cartesian functions: 131
    Spherical Harmonics?: true
    Max angular momentum: 3


  -Total Gradient:
     Atom            X                  Y                   Z
    ------   -----------------  -----------------  -----------------
       1        0.000000000000     0.000000000000    -0.017641630012
       2        0.000000000000    -0.012438414895     0.008820815006
       3       -0.000000000000     0.012438414895     0.008820815006


*** tstop() called on login at Mon Apr 18 11:26:41 2022
Module time:
	user time   =       0.06 seconds =       0.00 minutes
	system time =       0.00 seconds =       0.00 minutes
	total time  =          0 seconds =       0.00 minutes
Total time:
	user time   =       0.41 seconds =       0.01 minutes
	system time =       0.02 seconds =       0.00 minutes
	total time  =          0 seconds =       0.00 minutes

			-----------------------------------------
			 OPTKING 2.0: for geometry optimizations 
			  - R.A. King,  Bethel University        
			-----------------------------------------

	Internal coordinates to be generated automatically.
	Detected frag 1 with atoms:  1 2 3
	---Fragment 1 Bond Connectivity---
	 1 : 2 3
	 2 : 1
	 3 : 1

	---Fragment 1 Geometry and Gradient---
	 O           0.0000000000        0.0000000000       -0.1242978141
	 H           0.0000000000       -1.4344192748        0.9863482549
	 H           0.0000000000        1.4344192748        0.9863482549
	             0.0000000000        0.0000000000       -0.0176416300
	             0.0000000000       -0.0124384149        0.0088208150
	            -0.0000000000        0.0124384149        0.0088208150

	Previous optimization step data not found.  Starting new optimization.

	---Fragment 1 Intrafragment Coordinates---
	 - Coordinate -           - BOHR/RAD -       - ANG/DEG -
	 R(1,2)           =         1.814137	       0.960000
	 R(1,3)           =         1.814137	       0.960000
	 B(2,1,3)         =         1.823869	     104.500000

	Current energy   :       -76.0266327351

	Generating empirical Hessian (Schlegel '84) for each fragment.
	Taking RFO optimization step.
	Going to follow RFO solution 1.
	Using RFO vector 1.
	Norm of target step-size    0.03945
	Projected energy change by RFO approximation:        -0.0009497236

	Back-transformation to cartesian coordinates...
	Successfully converged to displaced geometry.

	--- Internal Coordinate Step in ANG or DEG, aJ/ANG or AJ/DEG ---
	 ---------------------------------------------------------------------------
	   Coordinate                Previous        Force       Change         New 
	   ----------                --------       ------       ------       ------
	    1 R(1,2)          =      0.960000    -0.125518    -0.014511     0.945489
	    2 R(1,3)          =      0.960000    -0.125518    -0.014511     0.945489
	    3 B(2,1,3)        =    104.500000    -0.000088    -0.413902   104.086098
	 ---------------------------------------------------------------------------
	Successfully symmetrized geometry.

  ==> Convergence Check <==

  Measures of convergence in internal coordinates in au.
  Criteria marked as inactive (o), active & met (*), and active & unmet ( ).
  --------------------------------------------------------------------------------------------- ~
   Step     Total Energy     Delta E     MAX Force     RMS Force      MAX Disp      RMS Disp    ~
  --------------------------------------------------------------------------------------------- ~
    Convergence Criteria    1.00e-06 *    3.00e-04 *             o    1.20e-03 *             o  ~
  --------------------------------------------------------------------------------------------- ~
      1     -76.02663274   -7.60e+01      1.52e-02      1.25e-02 o    2.74e-02      2.28e-02 o  ~
  ---------------------------------------------------------------------------------------------

	Writing optimization data to binary file.
	Structure for next step:
	Cartesian Geometry (in Angstrom)
	    O     0.0000000000   0.0000000000  -0.0616505536
	    H     0.0000000000  -0.7454924780   0.5198905079
	    H     0.0000000000   0.7454924780   0.5198905079
			--------------------------
			 OPTKING Finished Execution 
			--------------------------

    Structure for next step:
    Molecular point group: c2v
    Full point group: C2v

    Geometry (in Angstrom), charge = 0, multiplicity = 1:

    O       
    H             1    0.945489
    H             1    0.945489      2  104.086098


Scratch directory: /tmp/
gradient() will perform analytic gradient computation.

*** tstart() called on login
*** at Mon Apr 18 11:26:41 2022

   => Loading Basis Set <=

    Name: CC-PVDZ
    Role: ORBITAL
    Keyword: BASIS
    atoms 1   entry O          line   198 file /data/home/liuhanyu/anaconda3/envs/psi4/share/psi4/basis/cc-pvdz.gbs 
    atoms 2-3 entry H          line    22 file /data/home/liuhanyu/anaconda3/envs/psi4/share/psi4/basis/cc-pvdz.gbs 


         ---------------------------------------------------------
                                   SCF
               by Justin Turney, Rob Parrish, Andy Simmonett
                          and Daniel G. A. Smith
                              RHF Reference
                        1 Threads,    500 MiB Core
         ---------------------------------------------------------

  ==> Geometry <==

    Molecular point group: c2v
    Full point group: C2v

    Geometry (in Angstrom), charge = 0, multiplicity = 1:

       Center              X                  Y                   Z               Mass       
    ------------   -----------------  -----------------  -----------------  -----------------
         O            0.000000000000     0.000000000000    -0.065083094467    15.994914619570
         H            0.000000000000    -0.745492480957     0.516457969336     1.007825032230
         H            0.000000000000     0.745492480957     0.516457969336     1.007825032230

  Running in c2v symmetry.

  Rotational constants: A =     27.84620  B =     15.04856  C =      9.76915 [cm^-1]
  Rotational constants: A = 834808.17380  B = 451144.35496  C = 292871.61591 [MHz]
  Nuclear repulsion =    9.309900183313335

  Charge       = 0
  Multiplicity = 1
  Electrons    = 10
  Nalpha       = 5
  Nbeta        = 5

  ==> Algorithm <==

  SCF Algorithm Type is DF.
  DIIS enabled.
  MOM disabled.
  Fractional occupation disabled.
  Guess Type is READ.
  Energy threshold   = 1.00e-08
  Density threshold  = 1.00e-08
  Integral threshold = 1.00e-12

  ==> Primary Basis <==

  Basis Set: CC-PVDZ
    Blend: CC-PVDZ
    Number of shells: 12
    Number of basis functions: 24
    Number of Cartesian functions: 25
    Spherical Harmonics?: true
    Max angular momentum: 2

   => Loading Basis Set <=

    Name: (CC-PVDZ AUX)
    Role: JKFIT
    Keyword: DF_BASIS_SCF
    atoms 1   entry O          line   221 file /data/home/liuhanyu/anaconda3/envs/psi4/share/psi4/basis/cc-pvdz-jkfit.gbs 
    atoms 2-3 entry H          line    51 file /data/home/liuhanyu/anaconda3/envs/psi4/share/psi4/basis/cc-pvdz-jkfit.gbs 

   => Loading Basis Set <=

    Name: CC-PVDZ
    Role: ORBITAL
    Keyword: BASIS
    atoms 1   entry O          line   198 file /data/home/liuhanyu/anaconda3/envs/psi4/share/psi4/basis/cc-pvdz.gbs 
    atoms 2-3 entry H          line    22 file /data/home/liuhanyu/anaconda3/envs/psi4/share/psi4/basis/cc-pvdz.gbs 

  Reading orbitals from file /tmp/output.h2o.12791.180.npy, no projection.

  ==> Integral Setup <==

  DFHelper Memory: AOs need 0.001 GiB; user supplied 0.366 GiB. Using in-core AOs.

  ==> MemDFJK: Density-Fitted J/K Matrices <==

    J tasked:                   Yes
    K tasked:                   Yes
    wK tasked:                   No
    OpenMP threads:               1
    Memory [MiB]:               375
    Algorithm:                 Core
    Schwarz Cutoff:           1E-12
    Mask sparsity (%):       0.0000
    Fitting Condition:        1E-10

   => Auxiliary Basis Set <=

  Basis Set: (CC-PVDZ AUX)
    Blend: CC-PVDZ-JKFIT
    Number of shells: 42
    Number of basis functions: 116
    Number of Cartesian functions: 131
    Spherical Harmonics?: true
    Max angular momentum: 3

  Minimum eigenvalue in the overlap matrix is 3.1598365161E-02.
  Reciprocal condition number of the overlap matrix is 9.9879600816E-03.
    Using symmetric orthogonalization.

  ==> Pre-Iterations <==

  SCF Guess: Orbitals guess was supplied from a previous computation.

   -------------------------------------------------------
    Irrep   Nso     Nmo     Nalpha   Nbeta   Ndocc  Nsocc
   -------------------------------------------------------
     A1        11      11       3       3       3       0
     A2         2       2       0       0       0       0
     B1         4       4       1       1       1       0
     B2         7       7       1       1       1       0
   -------------------------------------------------------
    Total      24      24       5       5       5       0
   -------------------------------------------------------

  ==> Iterations <==

                           Total Energy        Delta E     RMS |[F,P]|

   @DF-RHF iter   0:   -76.04830539166639   -7.60483e+01   3.87082e-03 
   @DF-RHF iter   1:   -76.02698979674557    2.13156e-02   5.97563e-04 DIIS
   @DF-RHF iter   2:   -76.02701635203286   -2.65553e-05   3.06093e-04 DIIS
   @DF-RHF iter   3:   -76.02702228518778   -5.93315e-06   4.26182e-05 DIIS
   @DF-RHF iter   4:   -76.02702262857326   -3.43385e-07   1.31663e-05 DIIS
   @DF-RHF iter   5:   -76.02702266375796   -3.51847e-08   2.75997e-06 DIIS
   @DF-RHF iter   6:   -76.02702266596388   -2.20592e-09   4.90725e-07 DIIS
   @DF-RHF iter   7:   -76.02702266602145   -5.75682e-11   6.87868e-08 DIIS
   @DF-RHF iter   8:   -76.02702266602245   -9.94760e-13   1.01762e-08 DIIS
   @DF-RHF iter   9:   -76.02702266602242    2.84217e-14   8.33459e-10 DIIS
  Energy and wave function converged.


  ==> Post-Iterations <==

    Orbital Energies [Eh]
    ---------------------

    Doubly Occupied:                                                      

       1A1   -20.548577     2A1    -1.343128     1B2    -0.704833  
       3A1    -0.569635     1B1    -0.494167  

    Virtual:                                                              

       4A1     0.187430     2B2     0.257995     3B2     0.796450  
       5A1     0.867633     6A1     1.163162     2B1     1.200331  
       4B2     1.253190     7A1     1.439312     1A2     1.481259  
       3B1     1.675232     8A1     1.864191     5B2     1.951304  
       6B2     2.479906     9A1     2.521591     4B1     3.299140  
       2A2     3.349433    10A1     3.528742    11A1     3.876036  
       7B2     4.163835  

    Final Occupation by Irrep:
             A1    A2    B1    B2 
    DOCC [     3,    0,    1,    1 ]

  @DF-RHF Final Energy:   -76.02702266602242

   => Energetics <=

    Nuclear Repulsion Energy =              9.3099001833133350
    One-Electron Energy =                -123.3531659371188169
    Two-Electron Energy =                  38.0162430877830744
    Total Energy =                        -76.0270226660224182

Computation Completed


Properties will be evaluated at   0.000000,   0.000000,   0.000000 [a0]

Properties computed using the SCF density matrix

  Nuclear Dipole Moment: [e a0]
     X:     0.0000      Y:     0.0000      Z:     0.9680

  Electronic Dipole Moment: [e a0]
     X:     0.0000      Y:     0.0000      Z:    -0.1608

  Dipole Moment: [e a0]
     X:     0.0000      Y:     0.0000      Z:     0.8072     Total:     0.8072

  Dipole Moment: [D]
     X:     0.0000      Y:     0.0000      Z:     2.0517     Total:     2.0517


*** tstop() called on login at Mon Apr 18 11:26:41 2022
Module time:
	user time   =       0.21 seconds =       0.00 minutes
	system time =       0.01 seconds =       0.00 minutes
	total time  =          0 seconds =       0.00 minutes
Total time:
	user time   =       0.64 seconds =       0.01 minutes
	system time =       0.03 seconds =       0.00 minutes
	total time  =          0 seconds =       0.00 minutes

*** tstart() called on login
*** at Mon Apr 18 11:26:41 2022


         ------------------------------------------------------------
                                   SCF GRAD                          
                          Rob Parrish, Justin Turney,                
                       Andy Simmonett, and Alex Sokolov              
         ------------------------------------------------------------

  ==> Geometry <==

    Molecular point group: c2v
    Full point group: C2v

    Geometry (in Angstrom), charge = 0, multiplicity = 1:

       Center              X                  Y                   Z               Mass       
    ------------   -----------------  -----------------  -----------------  -----------------
         O            0.000000000000     0.000000000000    -0.065083094467    15.994914619570
         H            0.000000000000    -0.745492480957     0.516457969336     1.007825032230
         H            0.000000000000     0.745492480957     0.516457969336     1.007825032230

  Nuclear repulsion =    9.309900183313335

  ==> Basis Set <==

  Basis Set: CC-PVDZ
    Blend: CC-PVDZ
    Number of shells: 12
    Number of basis functions: 24
    Number of Cartesian functions: 25
    Spherical Harmonics?: true
    Max angular momentum: 2

  ==> DFJKGrad: Density-Fitted SCF Gradients <==

    Gradient:                    1
    J tasked:                  Yes
    K tasked:                  Yes
    wK tasked:                  No
    OpenMP threads:              1
    Integrals threads:           1
    Memory [MiB]:              375
    Schwarz Cutoff:          1E-12
    Fitting Condition:       1E-10

   => Auxiliary Basis Set <=

  Basis Set: (CC-PVDZ AUX)
    Blend: CC-PVDZ-JKFIT
    Number of shells: 42
    Number of basis functions: 116
    Number of Cartesian functions: 131
    Spherical Harmonics?: true
    Max angular momentum: 3


  -Total Gradient:
     Atom            X                  Y                   Z
    ------   -----------------  -----------------  -----------------
       1        0.000000000000     0.000000000000    -0.000087991510
       2       -0.000000000000     0.001570409326     0.000043995755
       3        0.000000000000    -0.001570409326     0.000043995755


*** tstop() called on login at Mon Apr 18 11:26:41 2022
Module time:
	user time   =       0.09 seconds =       0.00 minutes
	system time =       0.00 seconds =       0.00 minutes
	total time  =          0 seconds =       0.00 minutes
Total time:
	user time   =       0.73 seconds =       0.01 minutes
	system time =       0.03 seconds =       0.00 minutes
	total time  =          0 seconds =       0.00 minutes

			-----------------------------------------
			 OPTKING 2.0: for geometry optimizations 
			  - R.A. King,  Bethel University        
			-----------------------------------------

	Previous internal coordinate definitions found.
	---Fragment 1 Geometry and Gradient---
	 O           0.0000000000        0.0000000000       -0.1229892239
	 H           0.0000000000       -1.4087766176        0.9759641174
	 H           0.0000000000        1.4087766176        0.9759641174
	             0.0000000000        0.0000000000       -0.0000879915
	            -0.0000000000        0.0015704093        0.0000439958
	             0.0000000000       -0.0015704093        0.0000439958

	---Fragment 1 Intrafragment Coordinates---
	 - Coordinate -           - BOHR/RAD -       - ANG/DEG -
	 R(1,2)           =         1.786715	       0.945489
	 R(1,3)           =         1.786715	       0.945489
	 B(2,1,3)         =         1.816645	     104.086098

	Current energy   :       -76.0270226660

	Energy change for the previous step:
		Projected    :        -0.0009497236
		Actual       :        -0.0003899309

	Performing BFGS update.
	Previous computed or guess Hessian on step 1.
	Steps to be used in Hessian update: 1
	Taking RFO optimization step.
	Going to follow RFO solution 1.
	Using RFO vector 1.
	Norm of target step-size    0.01030
	Projected energy change by RFO approximation:        -0.0000302583

	Back-transformation to cartesian coordinates...
	Successfully converged to displaced geometry.

	--- Internal Coordinate Step in ANG or DEG, aJ/ANG or AJ/DEG ---
	 ---------------------------------------------------------------------------
	   Coordinate                Previous        Force       Change         New 
	   ----------                --------       ------       ------       ------
	    1 R(1,2)          =      0.945489     0.009978     0.000798     0.946287
	    2 R(1,3)          =      0.945489     0.009978     0.000798     0.946287
	    3 B(2,1,3)        =    104.086098     0.000136     0.577619   104.663717
	 ---------------------------------------------------------------------------
	Successfully symmetrized geometry.

  ==> Convergence Check <==

  Measures of convergence in internal coordinates in au.
  Criteria marked as inactive (o), active & met (*), and active & unmet ( ).
  ---------------------------------------------------------------------------------------------
   Step     Total Energy     Delta E     MAX Force     RMS Force      MAX Disp      RMS Disp   
  ---------------------------------------------------------------------------------------------
    Convergence Criteria    1.00e-06 *    3.00e-04 *             o    1.20e-03 *             o
  ---------------------------------------------------------------------------------------------
      2     -76.02702267   -3.90e-04      1.79e-03      1.43e-03 o    1.01e-02      5.95e-03 o  ~
  ---------------------------------------------------------------------------------------------

	Writing optimization data to binary file.
	Structure for next step:
	Cartesian Geometry (in Angstrom)
	    O     0.0000000000   0.0000000000  -0.0628980711
	    H     0.0000000000  -0.7490459964   0.5153654558
	    H     0.0000000000   0.7490459964   0.5153654558
			--------------------------
			 OPTKING Finished Execution 
			--------------------------

    Structure for next step:
    Molecular point group: c2v
    Full point group: C2v

    Geometry (in Angstrom), charge = 0, multiplicity = 1:

    O       
    H             1    0.946287
    H             1    0.946287      2  104.663717


Scratch directory: /tmp/
gradient() will perform analytic gradient computation.

*** tstart() called on login
*** at Mon Apr 18 11:26:41 2022

   => Loading Basis Set <=

    Name: CC-PVDZ
    Role: ORBITAL
    Keyword: BASIS
    atoms 1   entry O          line   198 file /data/home/liuhanyu/anaconda3/envs/psi4/share/psi4/basis/cc-pvdz.gbs 
    atoms 2-3 entry H          line    22 file /data/home/liuhanyu/anaconda3/envs/psi4/share/psi4/basis/cc-pvdz.gbs 


         ---------------------------------------------------------
                                   SCF
               by Justin Turney, Rob Parrish, Andy Simmonett
                          and Daniel G. A. Smith
                              RHF Reference
                        1 Threads,    500 MiB Core
         ---------------------------------------------------------

  ==> Geometry <==

    Molecular point group: c2v
    Full point group: C2v

    Geometry (in Angstrom), charge = 0, multiplicity = 1:

       Center              X                  Y                   Z               Mass       
    ------------   -----------------  -----------------  -----------------  -----------------
         O            0.000000000000     0.000000000000    -0.064716289590    15.994914619570
         H            0.000000000000    -0.749045999358     0.513547239539     1.007825032230
         H            0.000000000000     0.749045999358     0.513547239539     1.007825032230

  Running in c2v symmetry.

  Rotational constants: A =     28.16276  B =     14.90611  C =      9.74711 [cm^-1]
  Rotational constants: A = 844298.19554  B = 446873.99760  C = 292211.14876 [MHz]
  Nuclear repulsion =    9.300665063106063

  Charge       = 0
  Multiplicity = 1
  Electrons    = 10
  Nalpha       = 5
  Nbeta        = 5

  ==> Algorithm <==

  SCF Algorithm Type is DF.
  DIIS enabled.
  MOM disabled.
  Fractional occupation disabled.
  Guess Type is READ.
  Energy threshold   = 1.00e-08
  Density threshold  = 1.00e-08
  Integral threshold = 1.00e-12

  ==> Primary Basis <==

  Basis Set: CC-PVDZ
    Blend: CC-PVDZ
    Number of shells: 12
    Number of basis functions: 24
    Number of Cartesian functions: 25
    Spherical Harmonics?: true
    Max angular momentum: 2

   => Loading Basis Set <=

    Name: (CC-PVDZ AUX)
    Role: JKFIT
    Keyword: DF_BASIS_SCF
    atoms 1   entry O          line   221 file /data/home/liuhanyu/anaconda3/envs/psi4/share/psi4/basis/cc-pvdz-jkfit.gbs 
    atoms 2-3 entry H          line    51 file /data/home/liuhanyu/anaconda3/envs/psi4/share/psi4/basis/cc-pvdz-jkfit.gbs 

   => Loading Basis Set <=

    Name: CC-PVDZ
    Role: ORBITAL
    Keyword: BASIS
    atoms 1   entry O          line   198 file /data/home/liuhanyu/anaconda3/envs/psi4/share/psi4/basis/cc-pvdz.gbs 
    atoms 2-3 entry H          line    22 file /data/home/liuhanyu/anaconda3/envs/psi4/share/psi4/basis/cc-pvdz.gbs 

  Reading orbitals from file /tmp/output.h2o.12791.180.npy, no projection.

  ==> Integral Setup <==

  DFHelper Memory: AOs need 0.001 GiB; user supplied 0.366 GiB. Using in-core AOs.

  ==> MemDFJK: Density-Fitted J/K Matrices <==

    J tasked:                   Yes
    K tasked:                   Yes
    wK tasked:                   No
    OpenMP threads:               1
    Memory [MiB]:               375
    Algorithm:                 Core
    Schwarz Cutoff:           1E-12
    Mask sparsity (%):       0.0000
    Fitting Condition:        1E-10

   => Auxiliary Basis Set <=

  Basis Set: (CC-PVDZ AUX)
    Blend: CC-PVDZ-JKFIT
    Number of shells: 42
    Number of basis functions: 116
    Number of Cartesian functions: 131
    Spherical Harmonics?: true
    Max angular momentum: 3

  Minimum eigenvalue in the overlap matrix is 3.1737560928E-02.
  Reciprocal condition number of the overlap matrix is 1.0037051093E-02.
    Using symmetric orthogonalization.

  ==> Pre-Iterations <==

  SCF Guess: Orbitals guess was supplied from a previous computation.

   -------------------------------------------------------
    Irrep   Nso     Nmo     Nalpha   Nbeta   Ndocc  Nsocc
   -------------------------------------------------------
     A1        11      11       3       3       3       0
     A2         2       2       0       0       0       0
     B1         4       4       1       1       1       0
     B2         7       7       1       1       1       0
   -------------------------------------------------------
    Total      24      24       5       5       5       0
   -------------------------------------------------------

  ==> Iterations <==

                           Total Energy        Delta E     RMS |[F,P]|

   @DF-RHF iter   0:   -76.02604012271605   -7.60260e+01   3.14831e-04 
   @DF-RHF iter   1:   -76.02703225719577   -9.92134e-04   6.89502e-05 DIIS
   @DF-RHF iter   2:   -76.02703266108158   -4.03886e-07   2.54440e-05 DIIS
   @DF-RHF iter   3:   -76.02703271700416   -5.59226e-08   9.31236e-06 DIIS
   @DF-RHF iter   4:   -76.02703272814391   -1.11397e-08   2.07995e-06 DIIS
   @DF-RHF iter   5:   -76.02703272930370   -1.15979e-09   5.04744e-07 DIIS
   @DF-RHF iter   6:   -76.02703272937467   -7.09690e-11   4.03821e-08 DIIS
   @DF-RHF iter   7:   -76.02703272937504   -3.69482e-13   3.05460e-09 DIIS
  Energy and wave function converged.


  ==> Post-Iterations <==

    Orbital Energies [Eh]
    ---------------------

    Doubly Occupied:                                                      

       1A1   -20.548408     2A1    -1.342234     1B2    -0.705525  
       3A1    -0.568294     1B1    -0.493901  

    Virtual:                                                              

       4A1     0.187428     2B2     0.257800     3B2     0.797880  
       5A1     0.864177     6A1     1.162737     2B1     1.200484  
       4B2     1.252644     7A1     1.444706     1A2     1.479104  
       3B1     1.678366     8A1     1.865637     5B2     1.946914  
       6B2     2.479681     9A1     2.518360     4B1     3.295277  
       2A2     3.350895    10A1     3.525058    11A1     3.879921  
       7B2     4.159468  

    Final Occupation by Irrep:
             A1    A2    B1    B2 
    DOCC [     3,    0,    1,    1 ]

  @DF-RHF Final Energy:   -76.02703272937504

   => Energetics <=

    Nuclear Repulsion Energy =              9.3006650631060630
    One-Electron Energy =                -123.3386693196960096
    Two-Electron Energy =                  38.0109715272148989
    Total Energy =                        -76.0270327293750370

Computation Completed


Properties will be evaluated at   0.000000,   0.000000,   0.000000 [a0]

Properties computed using the SCF density matrix

  Nuclear Dipole Moment: [e a0]
     X:     0.0000      Y:     0.0000      Z:     0.9626

  Electronic Dipole Moment: [e a0]
     X:     0.0000      Y:     0.0000      Z:    -0.1585

  Dipole Moment: [e a0]
     X:     0.0000      Y:     0.0000      Z:     0.8041     Total:     0.8041

  Dipole Moment: [D]
     X:     0.0000      Y:     0.0000      Z:     2.0438     Total:     2.0438


*** tstop() called on login at Mon Apr 18 11:26:42 2022
Module time:
	user time   =       0.22 seconds =       0.00 minutes
	system time =       0.01 seconds =       0.00 minutes
	total time  =          1 seconds =       0.02 minutes
Total time:
	user time   =       0.97 seconds =       0.02 minutes
	system time =       0.04 seconds =       0.00 minutes
	total time  =          1 seconds =       0.02 minutes

*** tstart() called on login
*** at Mon Apr 18 11:26:42 2022


         ------------------------------------------------------------
                                   SCF GRAD                          
                          Rob Parrish, Justin Turney,                
                       Andy Simmonett, and Alex Sokolov              
         ------------------------------------------------------------

  ==> Geometry <==

    Molecular point group: c2v
    Full point group: C2v

    Geometry (in Angstrom), charge = 0, multiplicity = 1:

       Center              X                  Y                   Z               Mass       
    ------------   -----------------  -----------------  -----------------  -----------------
         O            0.000000000000     0.000000000000    -0.064716289590    15.994914619570
         H            0.000000000000    -0.749045999358     0.513547239539     1.007825032230
         H            0.000000000000     0.749045999358     0.513547239539     1.007825032230

  Nuclear repulsion =    9.300665063106063

  ==> Basis Set <==

  Basis Set: CC-PVDZ
    Blend: CC-PVDZ
    Number of shells: 12
    Number of basis functions: 24
    Number of Cartesian functions: 25
    Spherical Harmonics?: true
    Max angular momentum: 2

  ==> DFJKGrad: Density-Fitted SCF Gradients <==

    Gradient:                    1
    J tasked:                  Yes
    K tasked:                  Yes
    wK tasked:                  No
    OpenMP threads:              1
    Integrals threads:           1
    Memory [MiB]:              375
    Schwarz Cutoff:          1E-12
    Fitting Condition:       1E-10

   => Auxiliary Basis Set <=

  Basis Set: (CC-PVDZ AUX)
    Blend: CC-PVDZ-JKFIT
    Number of shells: 42
    Number of basis functions: 116
    Number of Cartesian functions: 131
    Spherical Harmonics?: true
    Max angular momentum: 3


  -Total Gradient:
     Atom            X                  Y                   Z
    ------   -----------------  -----------------  -----------------
       1       -0.000000000000     0.000000000000     0.000085866497
       2        0.000000000000    -0.000072678420    -0.000042933248
       3       -0.000000000000     0.000072678420    -0.000042933248


*** tstop() called on login at Mon Apr 18 11:26:42 2022
Module time:
	user time   =       0.05 seconds =       0.00 minutes
	system time =       0.00 seconds =       0.00 minutes
	total time  =          0 seconds =       0.00 minutes
Total time:
	user time   =       1.02 seconds =       0.02 minutes
	system time =       0.04 seconds =       0.00 minutes
	total time  =          1 seconds =       0.02 minutes

			-----------------------------------------
			 OPTKING 2.0: for geometry optimizations 
			  - R.A. King,  Bethel University        
			-----------------------------------------

	Previous internal coordinate definitions found.
	---Fragment 1 Geometry and Gradient---
	 O           0.0000000000        0.0000000000       -0.1222960632
	 H           0.0000000000       -1.4154917942        0.9704636352
	 H           0.0000000000        1.4154917942        0.9704636352
	            -0.0000000000        0.0000000000        0.0000858665
	             0.0000000000       -0.0000726784       -0.0000429332
	            -0.0000000000        0.0000726784       -0.0000429332

	---Fragment 1 Intrafragment Coordinates---
	 - Coordinate -           - BOHR/RAD -       - ANG/DEG -
	 R(1,2)           =         1.788223	       0.946287
	 R(1,3)           =         1.788223	       0.946287
	 B(2,1,3)         =         1.826726	     104.663717

	Current energy   :       -76.0270327294

	Energy change for the previous step:
		Projected    :        -0.0000302583
		Actual       :        -0.0000100634

	Performing BFGS update.
	Previous computed or guess Hessian on step 1.
	Steps to be used in Hessian update: 2 1
	Taking RFO optimization step.
	Going to follow RFO solution 1.
	Using RFO vector 1.
	Norm of target step-size    0.00077
	Projected energy change by RFO approximation:        -0.0000001419

	Back-transformation to cartesian coordinates...
	Successfully converged to displaced geometry.

	--- Internal Coordinate Step in ANG or DEG, aJ/ANG or AJ/DEG ---
	 ---------------------------------------------------------------------------
	   Coordinate                Previous        Force       Change         New 
	   ----------                --------       ------       ------       ------
	    1 R(1,2)          =      0.946287    -0.000258    -0.000007     0.946279
	    2 R(1,3)          =      0.946287    -0.000258    -0.000007     0.946279
	    3 B(2,1,3)        =    104.663717    -0.000011    -0.044383   104.619334
	 ---------------------------------------------------------------------------
	Successfully symmetrized geometry.

  ==> Convergence Check <==

  Measures of convergence in internal coordinates in au.
  Criteria marked as inactive (o), active & met (*), and active & unmet ( ).
  ---------------------------------------------------------------------------------------------
   Step     Total Energy     Delta E     MAX Force     RMS Force      MAX Disp      RMS Disp   
  ---------------------------------------------------------------------------------------------
    Convergence Criteria    1.00e-06 *    3.00e-04 *             o    1.20e-03 *             o
  ---------------------------------------------------------------------------------------------
      3     -76.02703273   -1.01e-05      1.40e-04 *    8.49e-05 o    7.75e-04 *    4.47e-04 o  ~
  ---------------------------------------------------------------------------------------------


  **** Optimization is complete! (in 3 steps) ****

  ==> Optimization Summary <==

  Measures of convergence in internal coordinates in au.
  --------------------------------------------------------------------------------------------------------------- ~
   Step         Total Energy             Delta E       MAX Force       RMS Force        MAX Disp        RMS Disp  ~
  --------------------------------------------------------------------------------------------------------------- ~
      1     -76.026632735125    -76.026632735125      0.01523518      0.01245755      0.02742222      0.02277529  ~
      2     -76.027022666022     -0.000389930898      0.00178779      0.00142945      0.01008136      0.00594927  ~
      3     -76.027032729375     -0.000010063353      0.00014019      0.00008488      0.00077463      0.00044738  ~
  --------------------------------------------------------------------------------------------------------------- ~

	Writing optimization data to binary file.
	Final energy is    -76.0270327293750
	Final (previous) structure:
	Cartesian Geometry (in Angstrom)
	    O     0.0000000000   0.0000000000  -0.0647162893
	    H     0.0000000000  -0.7490459964   0.5135472375
	    H     0.0000000000   0.7490459964   0.5135472375
	Saving final (previous) structure.
	Cleaning optimization helper files.
			--------------------------
			 OPTKING Finished Execution 
			--------------------------

    Final optimized geometry and variables:
    Molecular point group: c2v
    Full point group: C2v

    Geometry (in Angstrom), charge = 0, multiplicity = 1:

    O       
    H             1    0.946287
    H             1    0.946287      2  104.663717

	Removing binary optimization data file.
	Cleaning optimization helper files.

Scratch directory: /tmp/
gradient() will perform analytic gradient computation.

*** tstart() called on login
*** at Mon Apr 18 11:26:42 2022

   => Loading Basis Set <=

    Name: CC-PVDZ
    Role: ORBITAL
    Keyword: BASIS
    atoms 1   entry O          line   198 file /data/home/liuhanyu/anaconda3/envs/psi4/share/psi4/basis/cc-pvdz.gbs 
    atoms 2-3 entry H          line    22 file /data/home/liuhanyu/anaconda3/envs/psi4/share/psi4/basis/cc-pvdz.gbs 


         ---------------------------------------------------------
                                   SCF
               by Justin Turney, Rob Parrish, Andy Simmonett
                          and Daniel G. A. Smith
                              RHF Reference
                        1 Threads,    500 MiB Core
         ---------------------------------------------------------

  ==> Geometry <==

    Molecular point group: c2v
    Full point group: C2v

    Geometry (in Angstrom), charge = 0, multiplicity = 1:

       Center              X                  Y                   Z               Mass       
    ------------   -----------------  -----------------  -----------------  -----------------
         O            0.000000000000     0.000000000000    -0.064716289590    15.994914619570
         H            0.000000000000    -0.749045999358     0.513547239539     1.007825032230
         H            0.000000000000     0.749045999358     0.513547239539     1.007825032230

  Running in c2v symmetry.

  Rotational constants: A =     28.16276  B =     14.90611  C =      9.74711 [cm^-1]
  Rotational constants: A = 844298.19554  B = 446873.99760  C = 292211.14876 [MHz]
  Nuclear repulsion =    9.300665063106063

  Charge       = 0
  Multiplicity = 1
  Electrons    = 10
  Nalpha       = 5
  Nbeta        = 5

  ==> Algorithm <==

  SCF Algorithm Type is DF.
  DIIS enabled.
  MOM disabled.
  Fractional occupation disabled.
  Guess Type is SAD.
  Energy threshold   = 1.00e-08
  Density threshold  = 1.00e-08
  Integral threshold = 1.00e-12

  ==> Primary Basis <==

  Basis Set: CC-PVDZ
    Blend: CC-PVDZ
    Number of shells: 12
    Number of basis functions: 24
    Number of Cartesian functions: 25
    Spherical Harmonics?: true
    Max angular momentum: 2

   => Loading Basis Set <=

    Name: (CC-PVDZ AUX)
    Role: JKFIT
    Keyword: DF_BASIS_SCF
    atoms 1   entry O          line   221 file /data/home/liuhanyu/anaconda3/envs/psi4/share/psi4/basis/cc-pvdz-jkfit.gbs 
    atoms 2-3 entry H          line    51 file /data/home/liuhanyu/anaconda3/envs/psi4/share/psi4/basis/cc-pvdz-jkfit.gbs 

  ==> Integral Setup <==

  DFHelper Memory: AOs need 0.001 GiB; user supplied 0.366 GiB. Using in-core AOs.

  ==> MemDFJK: Density-Fitted J/K Matrices <==

    J tasked:                   Yes
    K tasked:                   Yes
    wK tasked:                   No
    OpenMP threads:               1
    Memory [MiB]:               375
    Algorithm:                 Core
    Schwarz Cutoff:           1E-12
    Mask sparsity (%):       0.0000
    Fitting Condition:        1E-10

   => Auxiliary Basis Set <=

  Basis Set: (CC-PVDZ AUX)
    Blend: CC-PVDZ-JKFIT
    Number of shells: 42
    Number of basis functions: 116
    Number of Cartesian functions: 131
    Spherical Harmonics?: true
    Max angular momentum: 3

  Minimum eigenvalue in the overlap matrix is 3.1737560928E-02.
  Reciprocal condition number of the overlap matrix is 1.0037051093E-02.
    Using symmetric orthogonalization.

  ==> Pre-Iterations <==

  SCF Guess: Superposition of Atomic Densities via on-the-fly atomic UHF (no occupation information).

   -------------------------
    Irrep   Nso     Nmo    
   -------------------------
     A1        11      11 
     A2         2       2 
     B1         4       4 
     B2         7       7 
   -------------------------
    Total      24      24
   -------------------------

  ==> Iterations <==

                           Total Energy        Delta E     RMS |[F,P]|

   @DF-RHF iter SAD:   -75.52638646544440   -7.55264e+01   0.00000e+00 
   @DF-RHF iter   1:   -75.95494157033234   -4.28555e-01   3.03402e-02 DIIS
   @DF-RHF iter   2:   -76.00811628809966   -5.31747e-02   1.71001e-02 DIIS
   @DF-RHF iter   3:   -76.02664557889672   -1.85293e-02   1.55842e-03 DIIS
   @DF-RHF iter   4:   -76.02701442262472   -3.68844e-04   3.47227e-04 DIIS
   @DF-RHF iter   5:   -76.02703185706829   -1.74344e-05   6.41705e-05 DIIS
   @DF-RHF iter   6:   -76.02703270421185   -8.47144e-07   1.03492e-05 DIIS
   @DF-RHF iter   7:   -76.02703272888182   -2.46700e-08   1.41551e-06 DIIS
   @DF-RHF iter   8:   -76.02703272934684   -4.65022e-10   3.20467e-07 DIIS
   @DF-RHF iter   9:   -76.02703272937428   -2.74412e-11   5.52536e-08 DIIS
   @DF-RHF iter  10:   -76.02703272937507   -7.81597e-13   4.51785e-09 DIIS
  Energy and wave function converged.


  ==> Post-Iterations <==

    Orbital Energies [Eh]
    ---------------------

    Doubly Occupied:                                                      

       1A1   -20.548408     2A1    -1.342234     1B2    -0.705525  
       3A1    -0.568294     1B1    -0.493901  

    Virtual:                                                              

       4A1     0.187428     2B2     0.257800     3B2     0.797880  
       5A1     0.864177     6A1     1.162737     2B1     1.200484  
       4B2     1.252644     7A1     1.444706     1A2     1.479104  
       3B1     1.678366     8A1     1.865637     5B2     1.946914  
       6B2     2.479681     9A1     2.518360     4B1     3.295277  
       2A2     3.350895    10A1     3.525058    11A1     3.879921  
       7B2     4.159468  

    Final Occupation by Irrep:
             A1    A2    B1    B2 
    DOCC [     3,    0,    1,    1 ]

  @DF-RHF Final Energy:   -76.02703272937507

   => Energetics <=

    Nuclear Repulsion Energy =              9.3006650631060630
    One-Electron Energy =                -123.3386693636262095
    Two-Electron Energy =                  38.0109715711450846
    Total Energy =                        -76.0270327293750654

Computation Completed


Properties will be evaluated at   0.000000,   0.000000,   0.000000 [a0]

Properties computed using the SCF density matrix

  Nuclear Dipole Moment: [e a0]
     X:     0.0000      Y:     0.0000      Z:     0.9626

  Electronic Dipole Moment: [e a0]
     X:     0.0000      Y:     0.0000      Z:    -0.1585

  Dipole Moment: [e a0]
     X:     0.0000      Y:     0.0000      Z:     0.8041     Total:     0.8041

  Dipole Moment: [D]
     X:     0.0000      Y:     0.0000      Z:     2.0438     Total:     2.0438


*** tstop() called on login at Mon Apr 18 11:26:42 2022
Module time:
	user time   =       0.31 seconds =       0.01 minutes
	system time =       0.03 seconds =       0.00 minutes
	total time  =          0 seconds =       0.00 minutes
Total time:
	user time   =       1.35 seconds =       0.02 minutes
	system time =       0.07 seconds =       0.00 minutes
	total time  =          1 seconds =       0.02 minutes

*** tstart() called on login
*** at Mon Apr 18 11:26:42 2022


         ------------------------------------------------------------
                                   SCF GRAD                          
                          Rob Parrish, Justin Turney,                
                       Andy Simmonett, and Alex Sokolov              
         ------------------------------------------------------------

  ==> Geometry <==

    Molecular point group: c2v
    Full point group: C2v

    Geometry (in Angstrom), charge = 0, multiplicity = 1:

       Center              X                  Y                   Z               Mass       
    ------------   -----------------  -----------------  -----------------  -----------------
         O            0.000000000000     0.000000000000    -0.064716289590    15.994914619570
         H            0.000000000000    -0.749045999358     0.513547239539     1.007825032230
         H            0.000000000000     0.749045999358     0.513547239539     1.007825032230

  Nuclear repulsion =    9.300665063106063

  ==> Basis Set <==

  Basis Set: CC-PVDZ
    Blend: CC-PVDZ
    Number of shells: 12
    Number of basis functions: 24
    Number of Cartesian functions: 25
    Spherical Harmonics?: true
    Max angular momentum: 2

  ==> DFJKGrad: Density-Fitted SCF Gradients <==

    Gradient:                    1
    J tasked:                  Yes
    K tasked:                  Yes
    wK tasked:                  No
    OpenMP threads:              1
    Integrals threads:           1
    Memory [MiB]:              375
    Schwarz Cutoff:          1E-12
    Fitting Condition:       1E-10

   => Auxiliary Basis Set <=

  Basis Set: (CC-PVDZ AUX)
    Blend: CC-PVDZ-JKFIT
    Number of shells: 42
    Number of basis functions: 116
    Number of Cartesian functions: 131
    Spherical Harmonics?: true
    Max angular momentum: 3


  -Total Gradient:
     Atom            X                  Y                   Z
    ------   -----------------  -----------------  -----------------
       1       -0.000000000000     0.000000000000     0.000085859984
       2        0.000000000000    -0.000072681053    -0.000042929992
       3       -0.000000000000     0.000072681053    -0.000042929992


*** tstop() called on login at Mon Apr 18 11:26:42 2022
Module time:
	user time   =       0.05 seconds =       0.00 minutes
	system time =       0.00 seconds =       0.00 minutes
	total time  =          0 seconds =       0.00 minutes
Total time:
	user time   =       1.40 seconds =       0.02 minutes
	system time =       0.07 seconds =       0.00 minutes
	total time  =          1 seconds =       0.02 minutes

  Based on options and gradient (rms=4.90E-05), recommend projecting translations and projecting rotations.
hessian() will perform frequency computation by finite difference of analytic gradients.

         ----------------------------------------------------------
                                   FINDIF
                     R. A. King and Jonathon Misiewicz
         ---------------------------------------------------------

  Using finite-differences of gradients to determine vibrational frequencies and 
  normal modes. Resulting frequencies are only valid at stationary points.
    Generating geometries for use with 3-point formula.
    Displacement size will be 5.00e-03.
    Number of atoms is 3.
    Number of irreps is 4.
    Number of SALCs is 3.
    Translations projected? 1. Rotations projected? 1.
    Index of SALCs per irrep:
     1 :  0  1 
     2 : 
     3 : 
     4 :  2 
    Number of SALCs per irrep:
     Irrep 1: 2
     Irrep 2: 0
     Irrep 3: 0
     Irrep 4: 1
    Number of geometries (including reference) is 6.
    Number of displacements per irrep:
      Irrep 1: 4
      Irrep 2: 0
      Irrep 3: 0
      Irrep 4: 1

  //>>>>>>>>>>>>>>>>>>>>>>>>>>>>>>>>>>>//
  //    Loading displacement 1 of 6    //
  //<<<<<<<<<<<<<<<<<<<<<<<<<<<<<<<<<<<//

Scratch directory: /tmp/
gradient() will perform analytic gradient computation.

*** tstart() called on login
*** at Mon Apr 18 11:26:43 2022

   => Loading Basis Set <=

    Name: CC-PVDZ
    Role: ORBITAL
    Keyword: BASIS
    atoms 1   entry O          line   198 file /data/home/liuhanyu/anaconda3/envs/psi4/share/psi4/basis/cc-pvdz.gbs 
    atoms 2-3 entry H          line    22 file /data/home/liuhanyu/anaconda3/envs/psi4/share/psi4/basis/cc-pvdz.gbs 


         ---------------------------------------------------------
                                   SCF
               by Justin Turney, Rob Parrish, Andy Simmonett
                          and Daniel G. A. Smith
                              RHF Reference
                        1 Threads,    500 MiB Core
         ---------------------------------------------------------

  ==> Geometry <==

    Molecular point group: c2v
    Full point group: C2v

    Geometry (in Angstrom), charge = 0, multiplicity = 1:

       Center              X                  Y                   Z               Mass       
    ------------   -----------------  -----------------  -----------------  -----------------
         O            0.000000000000     0.000000000000    -0.064716289590    15.994914619570
         H            0.000000000000    -0.749045999358     0.513547239539     1.007825032230
         H            0.000000000000     0.749045999358     0.513547239539     1.007825032230

  Running in c2v symmetry.

  Rotational constants: A =     28.16276  B =     14.90611  C =      9.74711 [cm^-1]
  Rotational constants: A = 844298.19554  B = 446873.99760  C = 292211.14876 [MHz]
  Nuclear repulsion =    9.300665063106063

  Charge       = 0
  Multiplicity = 1
  Electrons    = 10
  Nalpha       = 5
  Nbeta        = 5

  ==> Algorithm <==

  SCF Algorithm Type is DF.
  DIIS enabled.
  MOM disabled.
  Fractional occupation disabled.
  Guess Type is SAD.
  Energy threshold   = 1.00e-08
  Density threshold  = 1.00e-08
  Integral threshold = 1.00e-12

  ==> Primary Basis <==

  Basis Set: CC-PVDZ
    Blend: CC-PVDZ
    Number of shells: 12
    Number of basis functions: 24
    Number of Cartesian functions: 25
    Spherical Harmonics?: true
    Max angular momentum: 2

   => Loading Basis Set <=

    Name: (CC-PVDZ AUX)
    Role: JKFIT
    Keyword: DF_BASIS_SCF
    atoms 1   entry O          line   221 file /data/home/liuhanyu/anaconda3/envs/psi4/share/psi4/basis/cc-pvdz-jkfit.gbs 
    atoms 2-3 entry H          line    51 file /data/home/liuhanyu/anaconda3/envs/psi4/share/psi4/basis/cc-pvdz-jkfit.gbs 

  ==> Integral Setup <==

  DFHelper Memory: AOs need 0.001 GiB; user supplied 0.366 GiB. Using in-core AOs.

  ==> MemDFJK: Density-Fitted J/K Matrices <==

    J tasked:                   Yes
    K tasked:                   Yes
    wK tasked:                   No
    OpenMP threads:               1
    Memory [MiB]:               375
    Algorithm:                 Core
    Schwarz Cutoff:           1E-12
    Mask sparsity (%):       0.0000
    Fitting Condition:        1E-10

   => Auxiliary Basis Set <=

  Basis Set: (CC-PVDZ AUX)
    Blend: CC-PVDZ-JKFIT
    Number of shells: 42
    Number of basis functions: 116
    Number of Cartesian functions: 131
    Spherical Harmonics?: true
    Max angular momentum: 3

  Minimum eigenvalue in the overlap matrix is 3.1737560928E-02.
  Reciprocal condition number of the overlap matrix is 1.0037051093E-02.
    Using symmetric orthogonalization.

  ==> Pre-Iterations <==

  SCF Guess: Superposition of Atomic Densities via on-the-fly atomic UHF (no occupation information).

   -------------------------
    Irrep   Nso     Nmo    
   -------------------------
     A1        11      11 
     A2         2       2 
     B1         4       4 
     B2         7       7 
   -------------------------
    Total      24      24
   -------------------------

  ==> Iterations <==

                           Total Energy        Delta E     RMS |[F,P]|

   @DF-RHF iter SAD:   -75.52638646544440   -7.55264e+01   0.00000e+00 
   @DF-RHF iter   1:   -75.95494157033234   -4.28555e-01   3.03402e-02 DIIS
   @DF-RHF iter   2:   -76.00811628809966   -5.31747e-02   1.71001e-02 DIIS
   @DF-RHF iter   3:   -76.02664557889672   -1.85293e-02   1.55842e-03 DIIS
   @DF-RHF iter   4:   -76.02701442262472   -3.68844e-04   3.47227e-04 DIIS
   @DF-RHF iter   5:   -76.02703185706829   -1.74344e-05   6.41705e-05 DIIS
   @DF-RHF iter   6:   -76.02703270421185   -8.47144e-07   1.03492e-05 DIIS
   @DF-RHF iter   7:   -76.02703272888182   -2.46700e-08   1.41551e-06 DIIS
   @DF-RHF iter   8:   -76.02703272934684   -4.65022e-10   3.20467e-07 DIIS
   @DF-RHF iter   9:   -76.02703272937428   -2.74412e-11   5.52536e-08 DIIS
   @DF-RHF iter  10:   -76.02703272937507   -7.81597e-13   4.51785e-09 DIIS
  Energy and wave function converged.


  ==> Post-Iterations <==

    Orbital Energies [Eh]
    ---------------------

    Doubly Occupied:                                                      

       1A1   -20.548408     2A1    -1.342234     1B2    -0.705525  
       3A1    -0.568294     1B1    -0.493901  

    Virtual:                                                              

       4A1     0.187428     2B2     0.257800     3B2     0.797880  
       5A1     0.864177     6A1     1.162737     2B1     1.200484  
       4B2     1.252644     7A1     1.444706     1A2     1.479104  
       3B1     1.678366     8A1     1.865637     5B2     1.946914  
       6B2     2.479681     9A1     2.518360     4B1     3.295277  
       2A2     3.350895    10A1     3.525058    11A1     3.879921  
       7B2     4.159468  

    Final Occupation by Irrep:
             A1    A2    B1    B2 
    DOCC [     3,    0,    1,    1 ]

  @DF-RHF Final Energy:   -76.02703272937507

   => Energetics <=

    Nuclear Repulsion Energy =              9.3006650631060630
    One-Electron Energy =                -123.3386693636262095
    Two-Electron Energy =                  38.0109715711450846
    Total Energy =                        -76.0270327293750654

Computation Completed


Properties will be evaluated at   0.000000,   0.000000,   0.000000 [a0]

Properties computed using the SCF density matrix

  Nuclear Dipole Moment: [e a0]
     X:     0.0000      Y:     0.0000      Z:     0.9626

  Electronic Dipole Moment: [e a0]
     X:     0.0000      Y:     0.0000      Z:    -0.1585

  Dipole Moment: [e a0]
     X:     0.0000      Y:     0.0000      Z:     0.8041     Total:     0.8041

  Dipole Moment: [D]
     X:     0.0000      Y:     0.0000      Z:     2.0438     Total:     2.0438


*** tstop() called on login at Mon Apr 18 11:26:44 2022
Module time:
	user time   =       0.33 seconds =       0.01 minutes
	system time =       0.01 seconds =       0.00 minutes
	total time  =          1 seconds =       0.02 minutes
Total time:
	user time   =       2.05 seconds =       0.03 minutes
	system time =       0.11 seconds =       0.00 minutes
	total time  =          3 seconds =       0.05 minutes

*** tstart() called on login
*** at Mon Apr 18 11:26:44 2022


         ------------------------------------------------------------
                                   SCF GRAD                          
                          Rob Parrish, Justin Turney,                
                       Andy Simmonett, and Alex Sokolov              
         ------------------------------------------------------------

  ==> Geometry <==

    Molecular point group: c2v
    Full point group: C2v

    Geometry (in Angstrom), charge = 0, multiplicity = 1:

       Center              X                  Y                   Z               Mass       
    ------------   -----------------  -----------------  -----------------  -----------------
         O            0.000000000000     0.000000000000    -0.064716289590    15.994914619570
         H            0.000000000000    -0.749045999358     0.513547239539     1.007825032230
         H            0.000000000000     0.749045999358     0.513547239539     1.007825032230

  Nuclear repulsion =    9.300665063106063

  ==> Basis Set <==

  Basis Set: CC-PVDZ
    Blend: CC-PVDZ
    Number of shells: 12
    Number of basis functions: 24
    Number of Cartesian functions: 25
    Spherical Harmonics?: true
    Max angular momentum: 2

  ==> DFJKGrad: Density-Fitted SCF Gradients <==

    Gradient:                    1
    J tasked:                  Yes
    K tasked:                  Yes
    wK tasked:                  No
    OpenMP threads:              1
    Integrals threads:           1
    Memory [MiB]:              375
    Schwarz Cutoff:          1E-12
    Fitting Condition:       1E-10

   => Auxiliary Basis Set <=

  Basis Set: (CC-PVDZ AUX)
    Blend: CC-PVDZ-JKFIT
    Number of shells: 42
    Number of basis functions: 116
    Number of Cartesian functions: 131
    Spherical Harmonics?: true
    Max angular momentum: 3


  -Total Gradient:
     Atom            X                  Y                   Z
    ------   -----------------  -----------------  -----------------
       1       -0.000000000000     0.000000000000     0.000085859984
       2        0.000000000000    -0.000072681053    -0.000042929992
       3       -0.000000000000     0.000072681053    -0.000042929992


*** tstop() called on login at Mon Apr 18 11:26:44 2022
Module time:
	user time   =       0.06 seconds =       0.00 minutes
	system time =       0.00 seconds =       0.00 minutes
	total time  =          0 seconds =       0.00 minutes
Total time:
	user time   =       2.11 seconds =       0.04 minutes
	system time =       0.11 seconds =       0.00 minutes
	total time  =          3 seconds =       0.05 minutes

  //>>>>>>>>>>>>>>>>>>>>>>>>>>>>>>>>>>>//
  //    Loading displacement 2 of 6    //
  //<<<<<<<<<<<<<<<<<<<<<<<<<<<<<<<<<<<//

Scratch directory: /tmp/
gradient() will perform analytic gradient computation.

*** tstart() called on login
*** at Mon Apr 18 11:26:44 2022

   => Loading Basis Set <=

    Name: CC-PVDZ
    Role: ORBITAL
    Keyword: BASIS
    atoms 1   entry O          line   198 file /data/home/liuhanyu/anaconda3/envs/psi4/share/psi4/basis/cc-pvdz.gbs 
    atoms 2-3 entry H          line    22 file /data/home/liuhanyu/anaconda3/envs/psi4/share/psi4/basis/cc-pvdz.gbs 


         ---------------------------------------------------------
                                   SCF
               by Justin Turney, Rob Parrish, Andy Simmonett
                          and Daniel G. A. Smith
                              RHF Reference
                        1 Threads,    500 MiB Core
         ---------------------------------------------------------

  ==> Geometry <==

    Molecular point group: c2v
    Full point group: C2v

    Geometry (in Angstrom), charge = 0, multiplicity = 1:

       Center              X                  Y                   Z               Mass       
    ------------   -----------------  -----------------  -----------------  -----------------
         O            0.000000000000     0.000000000000    -0.064937611330    15.994914619570
         H            0.000000000000    -0.749045999358     0.515303507857     1.007825032230
         H            0.000000000000     0.749045999358     0.515303507857     1.007825032230

  Running in c2v symmetry.

  Rotational constants: A =     27.97111  B =     14.90611  C =      9.72406 [cm^-1]
  Rotational constants: A = 838552.89294  B = 446873.99760  C = 291519.87268 [MHz]
  Nuclear repulsion =    9.289240897168156

  Charge       = 0
  Multiplicity = 1
  Electrons    = 10
  Nalpha       = 5
  Nbeta        = 5

  ==> Algorithm <==

  SCF Algorithm Type is DF.
  DIIS enabled.
  MOM disabled.
  Fractional occupation disabled.
  Guess Type is SAD.
  Energy threshold   = 1.00e-08
  Density threshold  = 1.00e-08
  Integral threshold = 1.00e-12

  ==> Primary Basis <==

  Basis Set: CC-PVDZ
    Blend: CC-PVDZ
    Number of shells: 12
    Number of basis functions: 24
    Number of Cartesian functions: 25
    Spherical Harmonics?: true
    Max angular momentum: 2

   => Loading Basis Set <=

    Name: (CC-PVDZ AUX)
    Role: JKFIT
    Keyword: DF_BASIS_SCF
    atoms 1   entry O          line   221 file /data/home/liuhanyu/anaconda3/envs/psi4/share/psi4/basis/cc-pvdz-jkfit.gbs 
    atoms 2-3 entry H          line    51 file /data/home/liuhanyu/anaconda3/envs/psi4/share/psi4/basis/cc-pvdz-jkfit.gbs 

  ==> Integral Setup <==

  DFHelper Memory: AOs need 0.001 GiB; user supplied 0.366 GiB. Using in-core AOs.

  ==> MemDFJK: Density-Fitted J/K Matrices <==

    J tasked:                   Yes
    K tasked:                   Yes
    wK tasked:                   No
    OpenMP threads:               1
    Memory [MiB]:               375
    Algorithm:                 Core
    Schwarz Cutoff:           1E-12
    Mask sparsity (%):       0.0000
    Fitting Condition:        1E-10

   => Auxiliary Basis Set <=

  Basis Set: (CC-PVDZ AUX)
    Blend: CC-PVDZ-JKFIT
    Number of shells: 42
    Number of basis functions: 116
    Number of Cartesian functions: 131
    Spherical Harmonics?: true
    Max angular momentum: 3

  Minimum eigenvalue in the overlap matrix is 3.1796716850E-02.
  Reciprocal condition number of the overlap matrix is 1.0058899981E-02.
    Using symmetric orthogonalization.

  ==> Pre-Iterations <==

  SCF Guess: Superposition of Atomic Densities via on-the-fly atomic UHF (no occupation information).

   -------------------------
    Irrep   Nso     Nmo    
   -------------------------
     A1        11      11 
     A2         2       2 
     B1         4       4 
     B2         7       7 
   -------------------------
    Total      24      24
   -------------------------

  ==> Iterations <==

                           Total Energy        Delta E     RMS |[F,P]|

   @DF-RHF iter SAD:   -75.52495746484956   -7.55250e+01   0.00000e+00 
   @DF-RHF iter   1:   -75.95484446488483   -4.29887e-01   3.03390e-02 DIIS
   @DF-RHF iter   2:   -76.00804698267727   -5.32025e-02   1.71273e-02 DIIS
   @DF-RHF iter   3:   -76.02664042383607   -1.85934e-02   1.56089e-03 DIIS
   @DF-RHF iter   4:   -76.02701080040261   -3.70377e-04   3.48949e-04 DIIS
   @DF-RHF iter   5:   -76.02702841694267   -1.76165e-05   6.43966e-05 DIIS
   @DF-RHF iter   6:   -76.02702926869286   -8.51750e-07   1.03424e-05 DIIS
   @DF-RHF iter   7:   -76.02702929320533   -2.45125e-08   1.40703e-06 DIIS
   @DF-RHF iter   8:   -76.02702929366265   -4.57320e-10   3.19602e-07 DIIS
   @DF-RHF iter   9:   -76.02702929368996   -2.73133e-11   5.56568e-08 DIIS
   @DF-RHF iter  10:   -76.02702929369077   -8.10019e-13   4.54835e-09 DIIS
  Energy and wave function converged.


  ==> Post-Iterations <==

    Orbital Energies [Eh]
    ---------------------

    Doubly Occupied:                                                      

       1A1   -20.548726     2A1    -1.341756     1B2    -0.704498  
       3A1    -0.568460     1B1    -0.493876  

    Virtual:                                                              

       4A1     0.187188     2B2     0.257657     3B2     0.796321  
       5A1     0.863882     6A1     1.162980     2B1     1.200448  
       4B2     1.252898     7A1     1.443153     1A2     1.479406  
       3B1     1.677027     8A1     1.865452     5B2     1.946683  
       6B2     2.476210     9A1     2.515617     4B1     3.295225  
       2A2     3.348947    10A1     3.524353    11A1     3.876970  
       7B2     4.159216  

    Final Occupation by Irrep:
             A1    A2    B1    B2 
    DOCC [     3,    0,    1,    1 ]

  @DF-RHF Final Energy:   -76.02702929369077

   => Energetics <=

    Nuclear Repulsion Energy =              9.2892408971681562
    One-Electron Energy =                -123.3179074056573228
    Two-Electron Energy =                  38.0016372147983930
    Total Energy =                        -76.0270292936907737

Computation Completed


Properties will be evaluated at   0.000000,   0.000000,   0.000000 [a0]

Properties computed using the SCF density matrix

  Nuclear Dipole Moment: [e a0]
     X:     0.0000      Y:     0.0000      Z:     0.9659

  Electronic Dipole Moment: [e a0]
     X:     0.0000      Y:     0.0000      Z:    -0.1602

  Dipole Moment: [e a0]
     X:     0.0000      Y:     0.0000      Z:     0.8057     Total:     0.8057

  Dipole Moment: [D]
     X:     0.0000      Y:     0.0000      Z:     2.0478     Total:     2.0478


*** tstop() called on login at Mon Apr 18 11:26:44 2022
Module time:
	user time   =       0.26 seconds =       0.00 minutes
	system time =       0.02 seconds =       0.00 minutes
	total time  =          0 seconds =       0.00 minutes
Total time:
	user time   =       2.38 seconds =       0.04 minutes
	system time =       0.13 seconds =       0.00 minutes
	total time  =          3 seconds =       0.05 minutes

*** tstart() called on login
*** at Mon Apr 18 11:26:44 2022


         ------------------------------------------------------------
                                   SCF GRAD                          
                          Rob Parrish, Justin Turney,                
                       Andy Simmonett, and Alex Sokolov              
         ------------------------------------------------------------

  ==> Geometry <==

    Molecular point group: c2v
    Full point group: C2v

    Geometry (in Angstrom), charge = 0, multiplicity = 1:

       Center              X                  Y                   Z               Mass       
    ------------   -----------------  -----------------  -----------------  -----------------
         O            0.000000000000     0.000000000000    -0.064937611330    15.994914619570
         H            0.000000000000    -0.749045999358     0.515303507857     1.007825032230
         H            0.000000000000     0.749045999358     0.515303507857     1.007825032230

  Nuclear repulsion =    9.289240897168156

  ==> Basis Set <==

  Basis Set: CC-PVDZ
    Blend: CC-PVDZ
    Number of shells: 12
    Number of basis functions: 24
    Number of Cartesian functions: 25
    Spherical Harmonics?: true
    Max angular momentum: 2

  ==> DFJKGrad: Density-Fitted SCF Gradients <==

    Gradient:                    1
    J tasked:                  Yes
    K tasked:                  Yes
    wK tasked:                  No
    OpenMP threads:              1
    Integrals threads:           1
    Memory [MiB]:              375
    Schwarz Cutoff:          1E-12
    Fitting Condition:       1E-10

   => Auxiliary Basis Set <=

  Basis Set: (CC-PVDZ AUX)
    Blend: CC-PVDZ-JKFIT
    Number of shells: 42
    Number of basis functions: 116
    Number of Cartesian functions: 131
    Spherical Harmonics?: true
    Max angular momentum: 3


  -Total Gradient:
     Atom            X                  Y                   Z
    ------   -----------------  -----------------  -----------------
       1       -0.000000000000     0.000000000000    -0.001923605154
       2        0.000000000000    -0.000949073701     0.000961802577
       3       -0.000000000000     0.000949073701     0.000961802577


*** tstop() called on login at Mon Apr 18 11:26:44 2022
Module time:
	user time   =       0.04 seconds =       0.00 minutes
	system time =       0.00 seconds =       0.00 minutes
	total time  =          0 seconds =       0.00 minutes
Total time:
	user time   =       2.42 seconds =       0.04 minutes
	system time =       0.13 seconds =       0.00 minutes
	total time  =          3 seconds =       0.05 minutes

  //>>>>>>>>>>>>>>>>>>>>>>>>>>>>>>>>>>>//
  //    Loading displacement 3 of 6    //
  //<<<<<<<<<<<<<<<<<<<<<<<<<<<<<<<<<<<//

Scratch directory: /tmp/
gradient() will perform analytic gradient computation.

*** tstart() called on login
*** at Mon Apr 18 11:26:44 2022

   => Loading Basis Set <=

    Name: CC-PVDZ
    Role: ORBITAL
    Keyword: BASIS
    atoms 1   entry O          line   198 file /data/home/liuhanyu/anaconda3/envs/psi4/share/psi4/basis/cc-pvdz.gbs 
    atoms 2-3 entry H          line    22 file /data/home/liuhanyu/anaconda3/envs/psi4/share/psi4/basis/cc-pvdz.gbs 


         ---------------------------------------------------------
                                   SCF
               by Justin Turney, Rob Parrish, Andy Simmonett
                          and Daniel G. A. Smith
                              RHF Reference
                        1 Threads,    500 MiB Core
         ---------------------------------------------------------

  ==> Geometry <==

    Molecular point group: c2v
    Full point group: C2v

    Geometry (in Angstrom), charge = 0, multiplicity = 1:

       Center              X                  Y                   Z               Mass       
    ------------   -----------------  -----------------  -----------------  -----------------
         O            0.000000000000     0.000000000000    -0.064494967849    15.994914619570
         H            0.000000000000    -0.749045999358     0.511790971221     1.007825032230
         H            0.000000000000     0.749045999358     0.511790971221     1.007825032230

  Running in c2v symmetry.

  Rotational constants: A =     28.35638  B =     14.90611  C =      9.77020 [cm^-1]
  Rotational constants: A = 850102.74653  B = 446873.99760  C = 292903.33418 [MHz]
  Nuclear repulsion =    9.312093929205027

  Charge       = 0
  Multiplicity = 1
  Electrons    = 10
  Nalpha       = 5
  Nbeta        = 5

  ==> Algorithm <==

  SCF Algorithm Type is DF.
  DIIS enabled.
  MOM disabled.
  Fractional occupation disabled.
  Guess Type is SAD.
  Energy threshold   = 1.00e-08
  Density threshold  = 1.00e-08
  Integral threshold = 1.00e-12

  ==> Primary Basis <==

  Basis Set: CC-PVDZ
    Blend: CC-PVDZ
    Number of shells: 12
    Number of basis functions: 24
    Number of Cartesian functions: 25
    Spherical Harmonics?: true
    Max angular momentum: 2

   => Loading Basis Set <=

    Name: (CC-PVDZ AUX)
    Role: JKFIT
    Keyword: DF_BASIS_SCF
    atoms 1   entry O          line   221 file /data/home/liuhanyu/anaconda3/envs/psi4/share/psi4/basis/cc-pvdz-jkfit.gbs 
    atoms 2-3 entry H          line    51 file /data/home/liuhanyu/anaconda3/envs/psi4/share/psi4/basis/cc-pvdz-jkfit.gbs 

  ==> Integral Setup <==

  DFHelper Memory: AOs need 0.001 GiB; user supplied 0.366 GiB. Using in-core AOs.

  ==> MemDFJK: Density-Fitted J/K Matrices <==

    J tasked:                   Yes
    K tasked:                   Yes
    wK tasked:                   No
    OpenMP threads:               1
    Memory [MiB]:               375
    Algorithm:                 Core
    Schwarz Cutoff:           1E-12
    Mask sparsity (%):       0.0000
    Fitting Condition:        1E-10

   => Auxiliary Basis Set <=

  Basis Set: (CC-PVDZ AUX)
    Blend: CC-PVDZ-JKFIT
    Number of shells: 42
    Number of basis functions: 116
    Number of Cartesian functions: 131
    Spherical Harmonics?: true
    Max angular momentum: 3

  Minimum eigenvalue in the overlap matrix is 3.1678677497E-02.
  Reciprocal condition number of the overlap matrix is 1.0015313951E-02.
    Using symmetric orthogonalization.

  ==> Pre-Iterations <==

  SCF Guess: Superposition of Atomic Densities via on-the-fly atomic UHF (no occupation information).

   -------------------------
    Irrep   Nso     Nmo    
   -------------------------
     A1        11      11 
     A2         2       2 
     B1         4       4 
     B2         7       7 
   -------------------------
    Total      24      24
   -------------------------

  ==> Iterations <==

                           Total Energy        Delta E     RMS |[F,P]|

   @DF-RHF iter SAD:   -75.52780905761909   -7.55278e+01   0.00000e+00 
   @DF-RHF iter   1:   -75.95503014607702   -4.27221e-01   3.03415e-02 DIIS
   @DF-RHF iter   2:   -76.00817736541569   -5.31472e-02   1.70732e-02 DIIS
   @DF-RHF iter   3:   -76.02664320309557   -1.84658e-02   1.55595e-03 DIIS
   @DF-RHF iter   4:   -76.02701052235541   -3.67319e-04   3.45516e-04 DIIS
   @DF-RHF iter   5:   -76.02702777693267   -1.72546e-05   6.39464e-05 DIIS
   @DF-RHF iter   6:   -76.02702861954474   -8.42612e-07   1.03562e-05 DIIS
   @DF-RHF iter   7:   -76.02702864437290   -2.48282e-08   1.42370e-06 DIIS
   @DF-RHF iter   8:   -76.02702864484533   -4.72426e-10   3.21200e-07 DIIS
   @DF-RHF iter   9:   -76.02702864487283   -2.74980e-11   5.48501e-08 DIIS
   @DF-RHF iter  10:   -76.02702864487352   -6.96332e-13   4.48817e-09 DIIS
  Energy and wave function converged.


  ==> Post-Iterations <==

    Orbital Energies [Eh]
    ---------------------

    Doubly Occupied:                                                      

       1A1   -20.548091     2A1    -1.342712     1B2    -0.706554  
       3A1    -0.568127     1B1    -0.493925  

    Virtual:                                                              

       4A1     0.187668     2B2     0.257942     3B2     0.799447  
       5A1     0.864465     6A1     1.162496     2B1     1.200517  
[...]
*** at Mon Apr 18 11:26:45 2022


         ------------------------------------------------------------
                                   SCF GRAD                          
                          Rob Parrish, Justin Turney,                
                       Andy Simmonett, and Alex Sokolov              
         ------------------------------------------------------------

  ==> Geometry <==

    Molecular point group: c2v
    Full point group: C2v

    Geometry (in Angstrom), charge = 0, multiplicity = 1:

       Center              X                  Y                   Z               Mass       
    ------------   -----------------  -----------------  -----------------  -----------------
         O            0.000000000000     0.000000000000    -0.064716289590    15.994914619570
         H            0.000000000000    -0.747182352727     0.513547239539     1.007825032230
         H            0.000000000000     0.747182352727     0.513547239539     1.007825032230

  Nuclear repulsion =    9.315509795651584

  ==> Basis Set <==

  Basis Set: CC-PVDZ
    Blend: CC-PVDZ
    Number of shells: 12
    Number of basis functions: 24
    Number of Cartesian functions: 25
    Spherical Harmonics?: true
    Max angular momentum: 2

  ==> DFJKGrad: Density-Fitted SCF Gradients <==

    Gradient:                    1
    J tasked:                  Yes
    K tasked:                  Yes
    wK tasked:                  No
    OpenMP threads:              1
    Integrals threads:           1
    Memory [MiB]:              375
    Schwarz Cutoff:          1E-12
    Fitting Condition:       1E-10

   => Auxiliary Basis Set <=

  Basis Set: (CC-PVDZ AUX)
    Blend: CC-PVDZ-JKFIT
    Number of shells: 42
    Number of basis functions: 116
    Number of Cartesian functions: 131
    Spherical Harmonics?: true
    Max angular momentum: 3


  -Total Gradient:
     Atom            X                  Y                   Z
    ------   -----------------  -----------------  -----------------
       1       -0.000000000000     0.000000000000     0.001758085370
       2       -0.000000000000     0.001562592149    -0.000879042685
       3        0.000000000000    -0.001562592149    -0.000879042685


*** tstop() called on login at Mon Apr 18 11:26:45 2022
Module time:
	user time   =       0.04 seconds =       0.00 minutes
	system time =       0.00 seconds =       0.00 minutes
	total time  =          0 seconds =       0.00 minutes
Total time:
	user time   =       3.30 seconds =       0.06 minutes
	system time =       0.16 seconds =       0.00 minutes
	total time  =          4 seconds =       0.07 minutes

  //>>>>>>>>>>>>>>>>>>>>>>>>>>>>>>>>>>>//
  //    Loading displacement 6 of 6    //
  //<<<<<<<<<<<<<<<<<<<<<<<<<<<<<<<<<<<//

Scratch directory: /tmp/
gradient() will perform analytic gradient computation.

*** tstart() called on login
*** at Mon Apr 18 11:26:45 2022

   => Loading Basis Set <=

    Name: CC-PVDZ
    Role: ORBITAL
    Keyword: BASIS
    atoms 1   entry O          line   198 file /data/home/liuhanyu/anaconda3/envs/psi4/share/psi4/basis/cc-pvdz.gbs 
    atoms 2-3 entry H          line    22 file /data/home/liuhanyu/anaconda3/envs/psi4/share/psi4/basis/cc-pvdz.gbs 


         ---------------------------------------------------------
                                   SCF
               by Justin Turney, Rob Parrish, Andy Simmonett
                          and Daniel G. A. Smith
                              RHF Reference
                        1 Threads,    500 MiB Core
         ---------------------------------------------------------

  ==> Geometry <==

    Molecular point group: cs
    Full point group: Cs

    Geometry (in Angstrom), charge = 0, multiplicity = 1:

       Center              X                  Y                   Z               Mass       
    ------------   -----------------  -----------------  -----------------  -----------------
         O            0.000000000000    -0.000178969871    -0.064716289590    15.994914619570
         H            0.000000000000    -0.747625808491     0.512450852156     1.007825032230
         H            0.000000000000     0.750466190225     0.514643626922     1.007825032230

  Running in cs symmetry.

  Rotational constants: A =     28.16361  B =     14.90578  C =      9.74708 [cm^-1]
  Rotational constants: A = 844323.81902  B = 446864.05355  C = 292209.96595 [MHz]
  Nuclear repulsion =    9.300702069361257

  Charge       = 0
  Multiplicity = 1
  Electrons    = 10
  Nalpha       = 5
  Nbeta        = 5

  ==> Algorithm <==

  SCF Algorithm Type is DF.
  DIIS enabled.
  MOM disabled.
  Fractional occupation disabled.
  Guess Type is SAD.
  Energy threshold   = 1.00e-08
  Density threshold  = 1.00e-08
  Integral threshold = 1.00e-12

  ==> Primary Basis <==

  Basis Set: CC-PVDZ
    Blend: CC-PVDZ
    Number of shells: 12
    Number of basis functions: 24
    Number of Cartesian functions: 25
    Spherical Harmonics?: true
    Max angular momentum: 2

   => Loading Basis Set <=

    Name: (CC-PVDZ AUX)
    Role: JKFIT
    Keyword: DF_BASIS_SCF
    atoms 1   entry O          line   221 file /data/home/liuhanyu/anaconda3/envs/psi4/share/psi4/basis/cc-pvdz-jkfit.gbs 
    atoms 2-3 entry H          line    51 file /data/home/liuhanyu/anaconda3/envs/psi4/share/psi4/basis/cc-pvdz-jkfit.gbs 

  ==> Integral Setup <==

  DFHelper Memory: AOs need 0.001 GiB; user supplied 0.366 GiB. Using in-core AOs.

  ==> MemDFJK: Density-Fitted J/K Matrices <==

    J tasked:                   Yes
    K tasked:                   Yes
    wK tasked:                   No
    OpenMP threads:               1
    Memory [MiB]:               375
    Algorithm:                 Core
    Schwarz Cutoff:           1E-12
    Mask sparsity (%):       0.0000
    Fitting Condition:        1E-10

   => Auxiliary Basis Set <=

  Basis Set: (CC-PVDZ AUX)
    Blend: CC-PVDZ-JKFIT
    Number of shells: 42
    Number of basis functions: 116
    Number of Cartesian functions: 131
    Spherical Harmonics?: true
    Max angular momentum: 3

  Minimum eigenvalue in the overlap matrix is 3.3430425514E-02.
  Reciprocal condition number of the overlap matrix is 8.9587825282E-03.
    Using symmetric orthogonalization.

  ==> Pre-Iterations <==

  SCF Guess: Superposition of Atomic Densities via on-the-fly atomic UHF (no occupation information).

   -------------------------
    Irrep   Nso     Nmo    
   -------------------------
     A'        18      18 
     A"         6       6 
   -------------------------
    Total      24      24
   -------------------------

  ==> Iterations <==

                           Total Energy        Delta E     RMS |[F,P]|

   @DF-RHF iter SAD:   -75.52638197001636   -7.55264e+01   0.00000e+00 
   @DF-RHF iter   1:   -75.95493137532199   -4.28549e-01   2.20418e-02 DIIS
   @DF-RHF iter   2:   -76.00810730557538   -5.31759e-02   1.24231e-02 DIIS
   @DF-RHF iter   3:   -76.02663715041736   -1.85298e-02   1.13219e-03 DIIS
   @DF-RHF iter   4:   -76.02700602609126   -3.68876e-04   2.52269e-04 DIIS
   @DF-RHF iter   5:   -76.02702346381002   -1.74377e-05   4.66265e-05 DIIS
   @DF-RHF iter   6:   -76.02702431133051   -8.47520e-07   7.52098e-06 DIIS
   @DF-RHF iter   7:   -76.02702433602040   -2.46899e-08   1.02905e-06 DIIS
   @DF-RHF iter   8:   -76.02702433648614   -4.65732e-10   2.32968e-07 DIIS
   @DF-RHF iter   9:   -76.02702433651356   -2.74269e-11   4.01694e-08 DIIS
   @DF-RHF iter  10:   -76.02702433651427   -7.10543e-13   3.29391e-09 DIIS
  Energy and wave function converged.


  ==> Post-Iterations <==

    Orbital Energies [Eh]
    ---------------------

    Doubly Occupied:                                                      

       1Ap   -20.548408     2Ap    -1.342238     3Ap    -0.705527  
       4Ap    -0.568293     1App   -0.493901  

    Virtual:                                                              

       5Ap     0.187426     6Ap     0.257801     7Ap     0.797837  
       8Ap     0.864228     9Ap     1.162731     2App    1.200480  
      10Ap     1.252652    11Ap     1.444708     3App    1.479109  
       4App    1.678368    12Ap     1.865637    13Ap     1.946913  
      14Ap     2.479094    15Ap     2.518967     5App    3.295205  
       6App    3.350971    16Ap     3.525064    17Ap     3.879903  
      18Ap     4.159494  

    Final Occupation by Irrep:
             Ap   App 
    DOCC [     4,    1 ]

  @DF-RHF Final Energy:   -76.02702433651427

   => Energetics <=

    Nuclear Repulsion Energy =              9.3007020693612574
    One-Electron Energy =                -123.3387186128008750
    Two-Electron Energy =                  38.0109922069253514
    Total Energy =                        -76.0270243365142733

Computation Completed


Properties will be evaluated at   0.000000,   0.000000,   0.000000 [a0]

Properties computed using the SCF density matrix

  Nuclear Dipole Moment: [e a0]
     X:     0.0000      Y:     0.0027      Z:     0.9626

  Electronic Dipole Moment: [e a0]
     X:     0.0000      Y:    -0.0014      Z:    -0.1585

  Dipole Moment: [e a0]
     X:     0.0000      Y:     0.0012      Z:     0.8041     Total:     0.8041

  Dipole Moment: [D]
     X:     0.0000      Y:     0.0032      Z:     2.0438     Total:     2.0438


*** tstop() called on login at Mon Apr 18 11:26:45 2022
Module time:
	user time   =       0.22 seconds =       0.00 minutes
	system time =       0.01 seconds =       0.00 minutes
	total time  =          0 seconds =       0.00 minutes
Total time:
	user time   =       3.53 seconds =       0.06 minutes
	system time =       0.17 seconds =       0.00 minutes
	total time  =          4 seconds =       0.07 minutes

*** tstart() called on login
*** at Mon Apr 18 11:26:45 2022


         ------------------------------------------------------------
                                   SCF GRAD                          
                          Rob Parrish, Justin Turney,                
                       Andy Simmonett, and Alex Sokolov              
         ------------------------------------------------------------

  ==> Geometry <==

    Molecular point group: cs
    Full point group: Cs

    Geometry (in Angstrom), charge = 0, multiplicity = 1:

       Center              X                  Y                   Z               Mass       
    ------------   -----------------  -----------------  -----------------  -----------------
         O            0.000000000000    -0.000178969871    -0.064716289590    15.994914619570
         H            0.000000000000    -0.747625808491     0.512450852156     1.007825032230
         H            0.000000000000     0.750466190225     0.514643626922     1.007825032230

  Nuclear repulsion =    9.300702069361257

  ==> Basis Set <==

  Basis Set: CC-PVDZ
    Blend: CC-PVDZ
    Number of shells: 12
    Number of basis functions: 24
    Number of Cartesian functions: 25
    Spherical Harmonics?: true
    Max angular momentum: 2

  ==> DFJKGrad: Density-Fitted SCF Gradients <==

    Gradient:                    1
    J tasked:                  Yes
    K tasked:                  Yes
    wK tasked:                  No
    OpenMP threads:              1
    Integrals threads:           1
    Memory [MiB]:              375
    Schwarz Cutoff:          1E-12
    Fitting Condition:       1E-10

   => Auxiliary Basis Set <=

  Basis Set: (CC-PVDZ AUX)
    Blend: CC-PVDZ-JKFIT
    Number of shells: 42
    Number of basis functions: 116
    Number of Cartesian functions: 131
    Spherical Harmonics?: true
    Max angular momentum: 3


  -Total Gradient:
     Atom            X                  Y                   Z
    ------   -----------------  -----------------  -----------------
       1        0.000000000000    -0.003631990830     0.000104948380
       2        0.000000000000     0.001754899977    -0.001454624023
       3        0.000000000000     0.001877090852     0.001349675643


*** tstop() called on login at Mon Apr 18 11:26:45 2022
Module time:
	user time   =       0.04 seconds =       0.00 minutes
	system time =       0.00 seconds =       0.00 minutes
	total time  =          0 seconds =       0.00 minutes
Total time:
	user time   =       3.58 seconds =       0.06 minutes
	system time =       0.17 seconds =       0.00 minutes
	total time  =          4 seconds =       0.07 minutes

         ----------------------------------------------------------
                                   FINDIF
                     R. A. King and Jonathon Misiewicz
         ---------------------------------------------------------

  Computing second-derivative from gradients using projected, 
  symmetry-adapted, cartesian coordinates.

  6 gradients passed in, including the reference geometry.
  Generating complete list of displacements from unique ones.

    Operation 2 takes plus displacements of irrep B2 to minus ones.

-------------------------------------------------------------


  ==> Harmonic Vibrational Analysis <==

  non-mass-weighted Hessian:       Symmetric? True   Hermitian? True   Lin Dep Dim?  6 (0)
  projection of translations (True) and rotations (True) removed 6 degrees of freedom (6)
  total projector:                 Symmetric? True   Hermitian? True   Lin Dep Dim?  6 (6)
  mass-weighted Hessian:           Symmetric? True   Hermitian? True   Lin Dep Dim?  6 (0)
  pre-proj  low-frequency mode:    0.0000i [cm^-1]
  pre-proj  low-frequency mode:    0.0000i [cm^-1]
  pre-proj  low-frequency mode:    0.0000i [cm^-1]
  pre-proj  low-frequency mode:    0.0000  [cm^-1]
  pre-proj  low-frequency mode:    0.0000  [cm^-1]
  pre-proj  low-frequency mode:    0.0000  [cm^-1]
  pre-proj  all modes:['0.0000i' '0.0000i' '0.0000i' '0.0000' '0.0000' '0.0000' '1775.6615'
 '4113.3736' '4212.1816']
  projected mass-weighted Hessian: Symmetric? True   Hermitian? True   Lin Dep Dim?  6 (6)
  post-proj low-frequency mode:    0.0000i [cm^-1] (TR)
  post-proj low-frequency mode:    0.0000  [cm^-1] (TR)
  post-proj low-frequency mode:    0.0001  [cm^-1] (TR)
  post-proj low-frequency mode:    0.0001  [cm^-1] (TR)
  post-proj low-frequency mode:    0.0001  [cm^-1] (TR)
  post-proj low-frequency mode:    0.0001  [cm^-1] (TR)
  post-proj  all modes:['0.0000i' '0.0000' '0.0001' '0.0001' '0.0001' '0.0001' '1775.6615'
 '4113.3736' '4212.1816']

  Vibration                       7                   8                   9           
  Freq [cm^-1]                1775.6615           4113.3736           4212.1816       
  Irrep                           A1                  A1                  B2          
  Reduced mass [u]              1.0817              1.0460              1.0820        
  Force const [mDyne/A]         2.0095             10.4278             11.3110        
  Turning point v=0 [a0]        0.2504              0.1673              0.1625        
  RMS dev v=0 [a0 u^1/2]        0.1841              0.1210              0.1195        
  Char temp [K]               2554.7815           5918.2288           6060.3914       
  ----------------------------------------------------------------------------------
      1   O                0.00  0.00 -0.07    0.00  0.00  0.05    0.00 -0.07  0.00   
      2   H               -0.00  0.43  0.56   -0.00  0.58 -0.40   -0.00  0.56 -0.43   
      3   H               -0.00 -0.43  0.56   -0.00 -0.58 -0.40    0.00  0.56  0.43   

  ==> Thermochemistry Components <==

  Entropy, S
    Electronic S            0.000 [cal/(mol K)]        0.000 [J/(mol K)]       0.00000000 [mEh/K] (multiplicity = 1)
    Translational S        34.608 [cal/(mol K)]      144.801 [J/(mol K)]       0.05515177 [mEh/K] (mol. weight = 18.0106 [u], P = 101325.00 [Pa])
    Rotational S           10.376 [cal/(mol K)]       43.414 [J/(mol K)]       0.01653566 [mEh/K] (symmetry no. = 2)
    Vibrational S           0.004 [cal/(mol K)]        0.015 [J/(mol K)]       0.00000576 [mEh/K]
  Total S                  44.988 [cal/(mol K)]      188.230 [J/(mol K)]       0.07169319 [mEh/K]
  Correction S              0.000 [cal/(mol K)]        0.000 [J/(mol K)]       0.00000000 [mEh/K]

  Constant volume heat capacity, Cv
    Electronic Cv           0.000 [cal/(mol K)]        0.000 [J/(mol K)]       0.00000000 [mEh/K]
    Translational Cv        2.981 [cal/(mol K)]       12.472 [J/(mol K)]       0.00475022 [mEh/K]
    Rotational Cv           2.981 [cal/(mol K)]       12.472 [J/(mol K)]       0.00475022 [mEh/K]
    Vibrational Cv          0.028 [cal/(mol K)]        0.116 [J/(mol K)]       0.00004419 [mEh/K]
  Total Cv                  5.989 [cal/(mol K)]       25.059 [J/(mol K)]       0.00954462 [mEh/K]
  Correction Cv             0.000 [cal/(mol K)]        0.000 [J/(mol K)]       0.00000000 [mEh/K]

  Constant pressure heat capacity, Cp
    Electronic Cp           0.000 [cal/(mol K)]        0.000 [J/(mol K)]       0.00000000 [mEh/K]
    Translational Cp        4.968 [cal/(mol K)]       20.786 [J/(mol K)]       0.00791703 [mEh/K]
    Rotational Cp           2.981 [cal/(mol K)]       12.472 [J/(mol K)]       0.00475022 [mEh/K]
    Vibrational Cp          0.028 [cal/(mol K)]        0.116 [J/(mol K)]       0.00004419 [mEh/K]
  Total Cp                  7.977 [cal/(mol K)]       33.374 [J/(mol K)]       0.01271143 [mEh/K]
  Correction Cp             0.000 [cal/(mol K)]        0.000 [J/(mol K)]       0.00000000 [mEh/K]

  ==> Thermochemistry Energy Analysis <==

  Raw electronic energy, E0
  Total E0, Electronic energy at well bottom at 0 [K]                  -76.02703273 [Eh]

  Zero-point energy, ZPE_vib = Sum_i nu_i / 2
    Electronic ZPE          0.000 [kcal/mol]        0.000 [kJ/mol]       0.00000000 [Eh]
    Translational ZPE       0.000 [kcal/mol]        0.000 [kJ/mol]       0.00000000 [Eh]
    Rotational ZPE          0.000 [kcal/mol]        0.000 [kJ/mol]       0.00000000 [Eh]
    Vibrational ZPE        14.440 [kcal/mol]       60.419 [kJ/mol]       0.02301226 [Eh]        5050.608 [cm^-1]
  Correction ZPE           14.440 [kcal/mol]       60.419 [kJ/mol]       0.02301226 [Eh]        5050.608 [cm^-1]
  Total ZPE, Electronic energy at 0 [K]                                -76.00402046 [Eh]

  Thermal Energy, E (includes ZPE)
    Electronic E            0.000 [kcal/mol]        0.000 [kJ/mol]       0.00000000 [Eh]
    Translational E         0.889 [kcal/mol]        3.718 [kJ/mol]       0.00141628 [Eh]
    Rotational E            0.889 [kcal/mol]        3.718 [kJ/mol]       0.00141628 [Eh]
    Vibrational E          14.441 [kcal/mol]       60.423 [kJ/mol]       0.02301380 [Eh]
  Correction E             16.219 [kcal/mol]       67.860 [kJ/mol]       0.02584636 [Eh]
  Total E, Electronic energy at  298.15 [K]                            -76.00118637 [Eh]

  Enthalpy, H_trans = E_trans + k_B * T
    Electronic H            0.000 [kcal/mol]        0.000 [kJ/mol]       0.00000000 [Eh]
    Translational H         1.481 [kcal/mol]        6.197 [kJ/mol]       0.00236046 [Eh]
    Rotational H            0.889 [kcal/mol]        3.718 [kJ/mol]       0.00141628 [Eh]
    Vibrational H          14.441 [kcal/mol]       60.423 [kJ/mol]       0.02301380 [Eh]
  Correction H             16.811 [kcal/mol]       70.339 [kJ/mol]       0.02679054 [Eh]
  Total H, Enthalpy at  298.15 [K]                                     -76.00024219 [Eh]

  Gibbs free energy, G = H - T * S
    Electronic G            0.000 [kcal/mol]        0.000 [kJ/mol]       0.00000000 [Eh]
    Translational G        -8.837 [kcal/mol]      -36.975 [kJ/mol]      -0.01408304 [Eh]
    Rotational G           -2.205 [kcal/mol]       -9.226 [kJ/mol]      -0.00351383 [Eh]
    Vibrational G          14.440 [kcal/mol]       60.418 [kJ/mol]       0.02301209 [Eh]
  Correction G              3.398 [kcal/mol]       14.218 [kJ/mol]       0.00541521 [Eh]
  Total G, Free enthalpy at  298.15 [K]                                -76.02161751 [Eh]

    Psi4 stopped on: Monday, 18 April 2022 11:26AM
    Psi4 wall time for execution: 0:00:05.20

*** Psi4 exiting successfully. Buy a developer a beer!
